
#(C) 2022 by FIZ Karlsruhe - Leibniz Institute for Information Infrastructure.  All rights reserved.
data_35001-ICSD
_database_code_ICSD 35001
_audit_creation_date 1982-12-31
_audit_update_record 2012-08-01
_chemical_name_common 'Iron diiron(III) oxide - LT, subcell'
_chemical_formula_structural 'Fe3 O4'
_chemical_formula_sum 'Fe3 O4'
_chemical_name_structure_type Fe3O4(LT)
_exptl_crystal_density_diffrn 5.22
_diffrn_ambient_temperature 10.
_citation_title
'Structure of magnetite Fe3 O4 below the Verwey transition temperature'
loop_
_citation_id
_citation_journal_full
_citation_year
_citation_journal_volume
_citation_page_first
_citation_page_last
_citation_journal_id_ASTM
primary

;
Acta Crystallographica, Section B: Structural Crystallography and Crystal
Chemistry
; 1982 38 2121 2133 ACBCAR
loop_
_citation_author_citation_id
_citation_author_name
primary 'Iizumi, M.'
primary 'Koetzle, T.F.'
primary 'Shirane, G.'
primary 'Chikazumi, S.'
primary 'Matsui, M.'
primary 'Todo, S.'
_cell_length_a 5.934(1)
_cell_length_b 5.9255(10)
_cell_length_c 16.752(4)
_cell_angle_alpha 90.
_cell_angle_beta 90.
_cell_angle_gamma 90.
_cell_volume 589.03
_cell_formula_units_Z 8
_space_group_name_H-M_alt 'P m c a'
_space_group_IT_number 57
loop_
_space_group_symop_id
_space_group_symop_operation_xyz
1 'x+1/2, y, -z+1/2'
2 'x, -y, z+1/2'
3 '-x+1/2, y, z'
4 '-x, -y, -z'
5 '-x+1/2, -y, z+1/2'
6 '-x, y, -z+1/2'
7 'x+1/2, -y, -z'
8 'x, y, z'
loop_
_atom_type_symbol
_atom_type_oxidation_number
Fe2+ 2
Fe3+ 3
O2- -2
loop_
_atom_site_label
_atom_site_type_symbol
_atom_site_symmetry_multiplicity
_atom_site_Wyckoff_symbol
_atom_site_fract_x
_atom_site_fract_y
_atom_site_fract_z
_atom_site_B_iso_or_equiv
_atom_site_occupancy
Fe1 Fe2+ 4 d 0.25 0.0049(3) 0.0635(1) 0.1 1.
Fe2 Fe2+ 4 d 0.25 0.5067(2) 0.1887(1) 0.1 1.
Fe3 Fe3+ 4 b 0 0.5 0 0.13 1.
Fe4 Fe3+ 4 c 0 0.0099(3) 0.25 0.14 1.
Fe5 Fe3+ 4 d 0.25 0.2643(4) 0.3789(1) 0.1 1.
Fe6 Fe3+ 4 d 0.25 0.7549(5) 0.3746(2) 0.1 1.
O1 O2- 4 d 0.25 0.2630(6) -.0027(2) 0.16 1.
O2 O2- 4 d 0.25 0.7477(6) -.0009(2) 0.13 1.
O3 O2- 4 d 0.25 0.2461(7) 0.2540(2) 0.27 1.
O4 O2- 4 d 0.25 0.7696(6) 0.2527(2) 0.2 1.
O5 O2- 8 e -.0116(6) 0.0089(3) 0.1295(2) 0.17 1.
O6 O2- 8 e -.0067(6) 0.5050(3) 0.1244(1) 0.11 1.
#End of TTdata_35001-ICSD