
#(C) 2022 by FIZ Karlsruhe - Leibniz Institute for Information Infrastructure.  All rights reserved.
data_40089-ICSD
_database_code_ICSD 40089
_audit_creation_date 1998-06-26
_audit_update_record 2007-08-01
_chemical_name_common 'Iron oxide (0.9/1)'
_chemical_formula_structural 'Fe0.902 O'
_chemical_formula_sum 'Fe0.902 O1'
_exptl_crystal_density_diffrn 4.93
_citation_title
'Modulated structure of wustite (Fe1-X O) (Threedimensional modulation)'
loop_
_citation_id
_citation_journal_full
_citation_year
_citation_journal_volume
_citation_page_first
_citation_page_last
_citation_journal_id_ASTM
primary

;
Acta Crystallographica, Section B: Structural Crystallography and Crystal
Chemistry
; 1982 38 1451 1456 ACBCAR
loop_
_citation_author_citation_id
_citation_author_name
primary 'Yamamoto, A.'
_cell_length_a 12.90(12)
_cell_length_b 12.90(12)
_cell_length_c 12.90(12)
_cell_angle_alpha 90.
_cell_angle_beta 90.
_cell_angle_gamma 90.
_cell_volume 2146.69
_cell_formula_units_Z 96
_space_group_name_H-M_alt 'P m -3 m'
_space_group_IT_number 221
loop_
_space_group_symop_id
_space_group_symop_operation_xyz
1 'z, y, -x'
2 'y, x, -z'
3 'x, z, -y'
4 'z, x, -y'
5 'y, z, -x'
6 'x, y, -z'
7 'z, -y, x'
8 'y, -x, z'
9 'x, -z, y'
10 'z, -x, y'
11 'y, -z, x'
12 'x, -y, z'
13 '-z, y, x'
14 '-y, x, z'
15 '-x, z, y'
16 '-z, x, y'
17 '-y, z, x'
18 '-x, y, z'
19 '-z, -y, -x'
20 '-y, -x, -z'
21 '-x, -z, -y'
22 '-z, -x, -y'
23 '-y, -z, -x'
24 '-x, -y, -z'
25 '-z, -y, x'
26 '-y, -x, z'
27 '-x, -z, y'
28 '-z, -x, y'
29 '-y, -z, x'
30 '-x, -y, z'
31 '-z, y, -x'
32 '-y, x, -z'
33 '-x, z, -y'
34 '-z, x, -y'
35 '-y, z, -x'
36 '-x, y, -z'
37 'z, -y, -x'
38 'y, -x, -z'
39 'x, -z, -y'
40 'z, -x, -y'
41 'y, -z, -x'
42 'x, -y, -z'
43 'z, y, x'
44 'y, x, z'
45 'x, z, y'
46 'z, x, y'
47 'y, z, x'
48 'x, y, z'
loop_
_atom_type_symbol
_atom_type_oxidation_number
Fe2+ 2.228
O2- -2
loop_
_atom_site_label
_atom_site_type_symbol
_atom_site_symmetry_multiplicity
_atom_site_Wyckoff_symbol
_atom_site_fract_x
_atom_site_fract_y
_atom_site_fract_z
_atom_site_B_iso_or_equiv
_atom_site_occupancy
Fe1 Fe2+ 8 g 0.081 0.081 0.081 0.50(7) 0.33
Fe2 Fe2+ 12 i 0.16 0.16 0 0.50(7) 0.32
Fe3 Fe2+ 6 e 0.326 0 0 0.50(7) 0.53
Fe4 Fe2+ 12 i 0.328 0.328 0 0.50(7) 0.85
Fe5 Fe2+ 12 h 0.5 0.163 0 0.50(7) 0.8
Fe6 Fe2+ 24 m 0.327 0.163 0.163 0.50(7) 0.71
Fe7 Fe2+ 24 l 0.5 0.33 0.166 0.50(7) 0.97
Fe8 Fe2+ 8 g 0.331 0.331 0.331 0.50(7) 0.94
Fe9 Fe2+ 6 f 0.5 0.5 0.333 0.50(7) 0.98
Fe10 Fe2+ 3 c 0.5 0.5 0 0.50(7) 1.
O1 O2- 6 e 0.182 0 0 1.19(14) 1.
O2 O2- 3 d 0.5 0 0 1.19(14) 1.
O3 O2- 24 k 0.345 0.172 0 1.19(14) 1.
O4 O2- 8 g 0.175 0.175 0.175 1.19(14) 1.
O5 O2- 24 m 0.336 0.336 0.163 1.19(14) 1.
O6 O2- 12 j 0.5 0.166 0.166 1.19(14) 1.
O7 O2- 12 j 0.5 0.326 0.326 1.19(14) 1.
O8 O2- 1 b 0.5 0.5 0.5 1.19(14) 1.
O9 O2- 6 f 0.5 0.5 0.156 1.19(14) 1.
#End of TTdata_40089-ICSD