
#(C) 2022 by FIZ Karlsruhe - Leibniz Institute for Information Infrastructure.  All rights reserved.
data_27190-ICSD
_database_code_ICSD 27190
_audit_creation_date 2021-08-01
_chemical_name_common 'Iron(II,III) oxide'
_chemical_formula_structural 'Fe2.802 O4'
_chemical_formula_sum 'Fe2.802 O4'
_exptl_crystal_density_diffrn 5.
_citation_title

;
Local and long-range atomic/magnetic structure of non-stoichiometric spinel
iron oxide nanocrystallites
;
loop_
_citation_id
_citation_journal_full
_citation_year
_citation_journal_volume
_citation_page_first
_citation_page_last
_citation_journal_id_ASTM
primary 'IUCrJ -International Union of Crystallography Journal' 2021 8 33 45
IUCRAJ
loop_
_citation_author_citation_id
_citation_author_name
primary 'Andersen, Henrik L.'
primary 'Frandsen, Benjamin A.'
primary 'Gunnlaugsson, Haraldur P.'
primary 'Jørgensen, Mads R.V.'
primary 'Billinge, Simon J.L.'
primary 'Jensen, Kirsten M.Ø.'
primary 'Christensen, Mogens'
_cell_length_a 8.3784(2)
_cell_length_b 8.3784(2)
_cell_length_c 8.3458(4)
_cell_angle_alpha 90.
_cell_angle_beta 90.
_cell_angle_gamma 90.
_cell_volume 585.86
_cell_formula_units_Z 8
_space_group_name_H-M_alt 'P 43 21 2'
_space_group_IT_number 96
loop_
_space_group_symop_id
_space_group_symop_operation_xyz
1 'x+1/2, -y+1/2, -z+1/4'
2 '-x+1/2, y+1/2, -z+3/4'
3 '-y, -x, -z+1/2'
4 'y, x, -z'
5 'y+1/2, -x+1/2, z+1/4'
6 '-y+1/2, x+1/2, z+3/4'
7 '-x, -y, z+1/2'
8 'x, y, z'
loop_
_atom_type_symbol
_atom_type_oxidation_number
Fe2+ 2.857
O2- -2
loop_
_atom_site_label
_atom_site_type_symbol
_atom_site_symmetry_multiplicity
_atom_site_Wyckoff_symbol
_atom_site_fract_x
_atom_site_fract_y
_atom_site_fract_z
_atom_site_B_iso_or_equiv
_atom_site_occupancy
Fe1 Fe2+ 8 b 0.745(1) 0.996(2) 0.123(2) 0.38(1) 1.
Fe2 Fe2+ 4 a 0.620(1) 0.620(1) 0 0.38(1) 1.
Fe3 Fe2+ 8 b 0.365(1) 0.871(2) -0.010(1) 0.38(1) 1.
Fe4 Fe2+ 4 a 0.126(3) 0.126(3) 0 0.38(1) 0.604(8)
O1 O2- 8 b 0.614(4) 0.873(4) -0.014(3) 0.38(1) 1.
O2 O2- 8 b 0.118(3) 0.363(3) -0.016(3) 0.38(1) 1.
O3 O2- 8 b 0.112(3) 0.870(3) 0.004(3) 0.38(1) 1.
O4 O2- 8 b 0.387(3) 0.635(3) 0.008(2) 0.38(1) 1.
#End of TTdata_27190-ICSD