
#(C) 2022 by FIZ Karlsruhe - Leibniz Institute for Information Infrastructure.  All rights reserved.
data_35003-ICSD
_database_code_ICSD 35003
_audit_creation_date 1982-12-31
_audit_update_record 2012-08-01
_chemical_name_common 'Iron diiron(III) oxide'
_chemical_formula_structural 'Fe3 O4'
_chemical_formula_sum 'Fe3 O4'
_chemical_name_structure_type Fe3O4(LT)
_exptl_crystal_density_diffrn 5.22
_diffrn_ambient_temperature 10.
_citation_title
'Structure of magnetite Fe3 O4 below the Verwey transition temperature'
loop_
_citation_id
_citation_journal_full
_citation_year
_citation_journal_volume
_citation_page_first
_citation_page_last
_citation_journal_id_ASTM
primary

;
Acta Crystallographica, Section B: Structural Crystallography and Crystal
Chemistry
; 1982 38 2121 2133 ACBCAR
loop_
_citation_author_citation_id
_citation_author_name
primary 'Iizumi, M.'
primary 'Koetzle, T.F.'
primary 'Shirane, G.'
primary 'Chikazumi, S.'
primary 'Matsui, M.'
primary 'Todo, S.'
_cell_length_a 5.934(1)
_cell_length_b 5.9255(10)
_cell_length_c 16.752(4)
_cell_angle_alpha 90.
_cell_angle_beta 90.
_cell_angle_gamma 90.
_cell_volume 589.03
_cell_formula_units_Z 8
_space_group_name_H-M_alt 'P m c 21'
_space_group_IT_number 26
loop_
_space_group_symop_id
_space_group_symop_operation_xyz
1 'x, -y, z+1/2'
2 '-x, -y, z+1/2'
3 '-x, y, z'
4 'x, y, z'
loop_
_atom_type_symbol
_atom_type_oxidation_number
Fe2+ 2
Fe3+ 3
O2- -2
loop_
_atom_site_label
_atom_site_type_symbol
_atom_site_symmetry_multiplicity
_atom_site_Wyckoff_symbol
_atom_site_fract_x
_atom_site_fract_y
_atom_site_fract_z
_atom_site_B_iso_or_equiv
_atom_site_occupancy
Fe1 Fe2+ 2 a 0 0.0026(14) 0.4370(8) 0.1 1.
Fe2 Fe2+ 2 b 0.5 0.0065(13) 0.0640(7) 0.1 1.
Fe3 Fe2+ 2 b 0.5 0.5087(12) 0.1891(8) 0.1 1.
Fe4 Fe2+ 2 a 0 0.5044(13) 0.3117(7) 0.1 1.
Fe5 Fe3+ 4 c 0.2539(14) 0.5027(14) -.0002 0.13 1.
Fe6 Fe3+ 2 a 0 0.2597(14) 0.1213(7) 0.1 1.
Fe7 Fe3+ 2 a 0 0.7603(14) 0.1263(7) 0.1 1.
Fe8 Fe3+ 4 c 0.2433(12) 0.0098(5) 0.2476(10) 0.14 1.
Fe9 Fe3+ 2 b 0.5 0.2680(12) 0.3787(7) 0.1 1.
Fe10 Fe3+ 2 b 0.5 0.7504(15) 0.3753(9) 0.1 1.
O1 O2- 2 a 0 0.2484(24) 0.0012(9) 0.13 1.
O2 O2- 2 b 0.5 0.2686(23) -.0032(9) 0.16 1.
O3 O2- 2 a 0 0.7439(22) 0.0020(9) 0.16 1.
O4 O2- 2 b 0.5 0.7440(24) -.0006(9) 0.13 1.
O5 O2- 4 c 0.2407(18) 0.0085(16) 0.1291(12) 0.17 1.
O6 O2- 4 c 0.2449(21) 0.5067(16) 0.1239(6) 0.11 1.
O7 O2- 2 a 0 0.2356(20) 0.2464(11) 0.27 1.
O8 O2- 2 b 0.5 0.2563(18) 0.2555(10) 0.27 1.
O9 O2- 2 a 0 0.7761(24) 0.2492(10) 0.2 1.
O10 O2- 2 b 0.5 0.7638(24) 0.2549(10) 0.2 1.
O11 O2- 4 c 0.2640(21) 0.0096(17) 0.3706(10) 0.17 1.
O12 O2- 4 c 0.2575(19) 0.5042(15) 0.3755(6) 0.11 1.
#End of TTdata_35003-ICSD